Methanol
    6
    1MOL     CT    1   0.500   0.500   0.500
    1MOL    HC1    2   0.563   0.437   0.437
    1MOL    HC2    3   0.437   0.563   0.437
    1MOL    HC3    4   0.437   0.437   0.563
    1MOL     OH    5   0.581   0.581   0.581
    1MOL     HO    6   0.662   0.535   0.598
   1.00000   1.00000   1.00000
